# t (s)	mx ()	my ()	mz ()	E_total (J)	E_demag (J)	E_exch (J)	B_effx (T)	B_effy (T)	B_effz (T)	B_demagx (T)	B_demagy (T)	B_demagz (T)	B_exchx (T)	B_exchy (T)	B_exchz (T)
0	-1.2071827e-08	0.96705985	-1.5089784e-08	-1.5640387e-19	3.004517e-20	-1.8644904e-19	2.417734e-05	0.008508806	9.022167e-05	2.4177776e-05	-0.0021477565	9.0221474e-05	-4.1723253e-10	0.010656562	0
1.000765122374175e-11	-1.8484984e-08	0.9670605	-3.3197523e-08	-1.564039e-19	3.004512e-20	-1.8644903e-19	2.4172168e-05	0.008508804	9.022155e-05	2.4172556e-05	-0.0021477584	9.022169e-05	-3.9339065e-10	0.010656562	-9.536743e-11
