//mumax 3.10 [windows_amd64 go1.11.6(gc) CUDA-11.0]
//GPU info: NVIDIA GeForce GT 730(2048MB), CUDA Driver 11.4, cc=3.5, using cc=35 PTX
//(c) Arne Vansteenkiste, Dynamat LAB, Ghent University, Belgium
//This is free software without any warranty. See license.txt
//********************************************************************//
//  If you use mumax in any work or publication,                      //
//  we kindly ask you to cite the references in references.bib        //
//********************************************************************//
//output directory: anti-dipolar-exchange.out/
Nx := 32
Ny := 32
Nz := 16
setgridsize(Nx, Ny, Nz)
dx := 1e-9
dy := 1e-9
dz := 1e-9
setcellsize(dx, dy, dz)
Msat = 800e3
Aex = 13e-12
alpha = 0.5
GammaLL = 2 * pi * 175.87e9
Dbulk = 0
TableAdd(E_total)
TableAdd(E_demag)
TableAdd(E_exch)
TableAdd(B_eff)
TableAdd(B_demag)
TableAdd(B_exch)
diam := 20e-9
ratio := diam / 2
hh := 1e-9
dist := 3e-9
d_eff := dist / 2
disk1 := cylinder(diam, hh).transl(0, 0, d_eff)
disk2 := cylinder(diam, hh).transl(0, 0, -d_eff)
disks := disk1.add(disk2)
setgeom(disks)
saveas(geom, "initial_geo")
defregion(1, zrange(0, inf))
defregion(2, zrange(-inf, 0))
m.setRegion(1, vortex(1, 0))
m.setRegion(2, vortex(-1, 0))
saveas(m, "initial_state")
relax()
saveas(m, "relaxed_state")
autosave(m, 2.5e-12)
tableautosave(2.5e-12)
run(0.1e-9)
//********************************************************************//
//Please cite the following references, relevant for your simulation. //
//See bibtex file in output folder for justification.                 //
//********************************************************************//
//   * Vansteenkiste et al., AIP Adv. 4, 107133 (2014).
