# t (s)	mx ()	my ()	mz ()	E_total (J)	E_demag (J)	E_exch (J)	B_effx (T)	B_effy (T)	B_effz (T)	B_demagx (T)	B_demagy (T)	B_demagz (T)	B_exchx (T)	B_exchy (T)	B_exchz (T)
0	-3.772446e-09	0	-0.0023313675	5.316116e-19	7.115554e-20	4.604561e-19	-2.0954758e-09	0	5.2927295e-05	-5.2386895e-10	-4.656613e-10	5.3094656e-05	-2.3283064e-09	0	-1.671724e-07
1.0003609952555835e-11	3.621548e-08	-5.338011e-08	-0.60505164	-6.1705315e-20	8.687421e-20	-1.4857953e-19	-5.820766e-10	-8.9858077e-10	-0.009714992	-2.1668711e-10	4.947651e-10	0.013136435	-3.4924597e-10	-1.4842954e-09	-0.022851426
2.000442349085857e-11	1.4486191e-07	1.1694582e-08	-0.60586715	-6.182811e-20	8.702617e-20	-1.4885429e-19	1.6298145e-09	6.693881e-10	-0.009698124	-1.0568328e-09	-1.09139364e-10	0.013153689	2.7939677e-09	8.58563e-10	-0.022851812
3.000312454615293e-11	-3.621548e-08	3.8856192e-07	-0.6058307	-6.1828106e-20	8.701828e-20	-1.4884638e-19	-2.3283064e-10	8.760253e-09	-0.009699188	2.755769e-10	-3.3905962e-09	0.013152922	-5.820766e-10	1.2121745e-08	-0.022852108
4.000195333988002e-11	-9.05387e-07	-2.8293345e-08	-0.6058306	-6.182811e-20	8.701825e-20	-1.4884636e-19	-2.0256266e-08	-1.9936124e-09	-0.009699193	8.100869e-09	1.5279511e-10	0.013152918	-2.8056093e-08	-2.1827873e-09	-0.022852112
5.00059251441869e-11	-1.0864644e-07	-1.9601628e-06	-0.6058306	-6.1828125e-20	8.701824e-20	-1.4884636e-19	-2.3283064e-09	-4.1356543e-08	-0.009699193	9.943051e-10	1.7076673e-08	0.013152916	-3.3760443e-09	-5.8469595e-08	-0.022852112
6.000176218373387e-11	4.1527082e-06	-4.6438808e-07	-0.6058306	-6.182809e-20	8.7018257e-20	-1.4884636e-19	8.8475645e-08	-8.571078e-09	-0.009699192	-3.623154e-08	3.976311e-09	0.013152919	1.2444798e-07	-1.2660166e-08	-0.02285211
7.000501762460984e-11	1.3882601e-06	8.872038e-06	-0.6058306	-6.182811e-20	8.7018257e-20	-1.4884637e-19	2.8288923e-08	1.8741412e-07	-0.009699191	-1.2136979e-08	-7.725612e-08	0.013152919	4.0396117e-08	2.6478665e-07	-0.02285211
8.000409954462325e-11	-1.8940696e-05	3.933529e-06	-0.6058306	-6.182809e-20	8.7018257e-20	-1.4884636e-19	-4.0209852e-07	8.352799e-08	-0.009699193	1.6486274e-07	-3.4186087e-08	0.013152918	-5.6717545e-07	1.1769589e-07	-0.022852112
9.000863128198127e-11	-1.0502489e-05	-4.0205974e-05	-0.6058306	-6.182811e-20	8.7018257e-20	-1.4884636e-19	-2.2083987e-07	-8.5252395e-07	-0.009699193	9.159157e-08	3.4996629e-07	0.013152918	-3.1245872e-07	-1.202483e-06	-0.022852112
1.0000534080017877e-10	8.5142594e-05	-2.6754564e-05	-0.6058306	-6.182809e-20	8.7018257e-20	-1.4884637e-19	1.8063001e-06	-5.650072e-07	-0.009699192	-7.414801e-07	2.3300527e-07	0.013152919	2.5474e-06	-7.980416e-07	-0.022852108
1.1000310675417002e-10	6.593632e-05	0.00018016183	-0.6058306	-6.182809e-20	8.7018257e-20	-1.4884636e-19	1.3893005e-06	3.8213184e-06	-0.009699192	-5.743241e-07	-1.5685364e-06	0.013152919	1.9636936e-06	5.389884e-06	-0.022852108
1.2000603117631877e-10	-0.0003809627	0.00015898634	-0.6058305	-6.182811e-20	8.7018257e-20	-1.4884637e-19	-8.082017e-06	3.3540418e-06	-0.009699192	3.3167198e-06	-1.3844838e-06	0.013152916	-1.1399039e-05	4.738584e-06	-0.022852108
1.3000496930436574e-10	-0.00037866906	-0.0008033718	-0.60583043	-6.182815e-20	8.701825e-20	-1.4884642e-19	-7.993658e-06	-1.7046696e-05	-0.0096991835	3.2974772e-06	6.9940033e-06	0.013152913	-1.1291006e-05	-2.404071e-05	-0.022852097
1.400106520067186e-10	0.0016913716	-0.0008905417	-0.6058297	-6.182834e-20	8.7018257e-20	-1.4884659e-19	3.5892124e-05	-1.8806852e-05	-0.009699155	-1.47248065e-05	7.754665e-06	0.013152896	5.0617033e-05	-2.656148e-05	-0.022852052
1.500014430463315e-10	0.0020812433	0.0035436824	-0.6058264	-6.182922e-20	8.7018257e-20	-1.4884747e-19	4.3971115e-05	7.520696e-05	-0.009699018	-1.8122517e-05	-3.085014e-05	0.013152823	6.209349e-05	0.00010605712	-0.022851842
1.6000931079202626e-10	-0.0074254046	0.00480995	-0.60581094	-6.183322e-20	8.701827e-20	-1.4885149e-19	-0.00015760341	0.0001016505	-0.009698379	6.464299e-05	-4.1882962e-05	0.013152476	-0.00022224616	0.0001435334	-0.022850852
1.7000616784218575e-10	-0.01105853	-0.015489663	-0.6057395	-6.185178e-20	8.7018334e-20	-1.4887011e-19	-0.00023376115	-0.00032879802	-0.009695426	9.629174e-05	0.0001348464	0.013150873	-0.0003300527	-0.0004636445	-0.022846298
1.800090801664534e-10	0.03229118	-0.025228601	-0.6054076	-6.193796e-20	8.701847e-20	-1.4895644e-19	0.00068539986	-0.00053329766	-0.009681729	-0.0002811117	0.0002196774	0.013143428	0.0009665112	-0.00075297506	-0.022825157
1.9000750302329856e-10	0.05707596	0.06747915	-0.603857	-6.234091e-20	8.7015937e-20	-1.4935684e-19	0.0012054122	0.0014312037	-0.009617956	-0.00049700536	-0.00058744435	0.013108643	0.0017024176	0.002018648	-0.022726597
2.0000871917718421e-10	-0.14500831	0.12647621	-0.5963317	-6.429895e-20	8.693225e-20	-1.512312e-19	-0.0030624892	0.0026570698	-0.009314155	0.0012624593	-0.0011015318	0.012940112	-0.0043249484	0.0037586014	-0.022254268
2.1000444659050487e-10	-0.25569552	-0.35052714	-0.5532877	-7.537704e-20	8.461511e-20	-1.5999215e-19	-0.005199184	-0.0072188787	-0.0077496907	0.002229713	0.003050035	0.011983585	-0.0074288966	-0.010268914	-0.019733276
2.2000485724134752e-10	0.7896991	-0.3736029	-0.2736044	-1.2683694e-19	5.0753767e-20	-1.775907e-19	0.014145032	-0.0064364458	-0.0021636458	-0.006844263	0.0032496464	0.005897943	0.020989297	-0.009686091	-0.008061589
2.300048488642708e-10	0.93643683	0.19413766	-0.038680155	-1.4155998e-19	3.6899228e-20	-1.784592e-19	0.015926126	0.0033559762	-0.0002519635	-0.0081166895	-0.0016845902	0.0008331672	0.024042817	0.0050405664	-0.0010851314
2.4001012946827056e-10	0.91819125	0.27295467	-0.004501349	-1.418438e-19	3.6610552e-20	-1.7845436e-19	0.015611477	0.0046569537	-2.9143179e-05	-0.007958857	-0.0023675621	9.695755e-05	0.023570335	0.0070245154	-0.00012610084
2.500043720993678e-10	0.91575104	0.2811159	-0.00034012372	-1.418474e-19	3.6605563e-20	-1.7845297e-19	0.015571319	0.004791256	-2.361252e-06	-0.00793772	-0.0024382884	7.327646e-06	0.023509039	0.007229545	-9.688316e-06
2.600041768406812e-10	0.915835	0.28084263	0.00016549871	-1.4184745e-19	3.660552e-20	-1.7845297e-19	0.015572906	0.0047860374	8.8941306e-07	-0.0079384465	-0.0024359133	-3.5633566e-06	0.02351135	0.00722195	4.452886e-06
2.700059388147872e-10	0.9162306	0.27954796	0.00022634675	-1.4184748e-19	3.660564e-20	-1.7845311e-19	0.015579622	0.004763916	1.2831297e-06	-0.007941871	-0.0024246844	-4.8739603e-06	0.023521494	0.0071886005	6.1567407e-06
2.800029627166079e-10	0.9166607	0.27813268	0.00023319751	-1.418475e-19	3.6605766e-20	-1.7845328e-19	0.015586905	0.004739801	1.3273675e-06	-0.007945593	-0.0024124105	-5.0216913e-06	0.023532499	0.0071522114	6.349059e-06
2.9000216608312757e-10	0.91709226	0.276705	0.0002334993	-1.4184757e-19	3.66059e-20	-1.7845349e-19	0.015594211	0.004715482	1.3307435e-06	-0.007949329	-0.0024000295	-5.028327e-06	0.02354354	0.007115511	6.3588377e-06
3.0000778028070795e-10	0.91752124	0.27527767	0.00023299229	-1.4184763e-19	3.660603e-20	-1.7845366e-19	0.015601472	0.0046911705	1.3276003e-06	-0.007953042	-0.0023876505	-5.0172675e-06	0.023554511	0.0070788213	6.344868e-06
3.1000600907172107e-10	0.91794664	0.27385426	0.0002323887	-1.4184768e-19	3.660616e-20	-1.7845384e-19	0.015608672	0.0046669254	1.323875e-06	-0.007956725	-0.0023753063	-5.004229e-06	0.023565397	0.0070422315	6.3285697e-06
3.2000301698191614e-10	0.9183686	0.2724342	0.00023177304	-1.4184775e-19	3.6606287e-20	-1.7845403e-19	0.015615817	0.004642736	1.3200333e-06	-0.007960377	-0.0023629908	-4.991074e-06	0.023576194	0.007005727	6.3106418e-06
3.300079882470545e-10	0.9187876	0.27101627	0.0002311272	-1.4184783e-19	3.6606416e-20	-1.7845424e-19	0.015622909	0.0046185832	1.3168901e-06	-0.007964004	-0.0023506938	-4.976988e-06	0.023586914	0.006969277	6.294111e-06
3.40005105884454e-10	0.919203	0.2696027	0.00023049343	-1.4184783e-19	3.6606545e-20	-1.7845437e-19	0.01562994	0.0045945044	1.3140962e-06	-0.007967599	-0.0023384343	-4.9631344e-06	0.023597538	0.0069329385	6.277347e-06
3.500011517135196e-10	0.919615	0.26819268	0.00022982947	-1.4184792e-19	3.660667e-20	-1.7845459e-19	0.015636912	0.0045704846	1.3103709e-06	-0.007971165	-0.0023262058	-4.9488153e-06	0.02360808	0.0068966905	6.259186e-06
3.600020823487465e-10	0.9200237	0.26678535	0.00022918967	-1.4184796e-19	3.66068e-20	-1.7845476e-19	0.015643833	0.004546512	1.3066456e-06	-0.007974704	-0.0023140006	-4.9354276e-06	0.023618534	0.0068605132	6.241724e-06
3.7000984041495465e-10	0.92042947	0.2653804	0.00022851364	-1.4184803e-19	3.6606926e-20	-1.7845496e-19	0.0156507	0.0045225807	1.3026875e-06	-0.007978216	-0.0023018166	-4.921225e-06	0.02362892	0.006824398	6.223563e-06
3.80002910500578e-10	0.92083144	0.2639811	0.00022785574	-1.4184807e-19	3.6607052e-20	-1.7845512e-19	0.015657503	0.0044987444	1.2993114e-06	-0.007981694	-0.0022896808	-4.9067894e-06	0.0236392	0.006788425	6.2067993e-06
3.900033715345437e-10	0.92123026	0.26258424	0.00022717367	-1.4184811e-19	3.6607172e-20	-1.7845529e-19	0.015664253	0.0044749486	1.2954697e-06	-0.007985147	-0.002277566	-4.8922375e-06	0.023649402	0.0067525147	6.188173e-06
4.000012954505203e-10	0.9216257	0.26119128	0.00022648557	-1.4184819e-19	3.660729e-20	-1.7845549e-19	0.015670951	0.0044512213	1.2924429e-06	-0.00798857	-0.0022654857	-4.8771035e-06	0.02365952	0.006716707	6.1690807e-06
4.1000622939213446e-10	0.9220181	0.25980106	0.00022579145	-1.4184823e-19	3.6607424e-20	-1.7845565e-19	0.015677594	0.0044275383	1.2880191e-06	-0.007991966	-0.0022534288	-4.861853e-06	0.02366956	0.0066809673	6.1504543e-06
4.2000517497656715e-10	0.92240703	0.2584154	0.00022509732	-1.4184825e-19	3.6607537e-20	-1.7845579e-19	0.015684176	0.0044039343	1.2842938e-06	-0.0079953335	-0.0022414112	-4.8478832e-06	0.023679508	0.0066453456	6.1322935e-06
4.3000664722482653e-10	0.92279273	0.25703308	0.0002244032	-1.4184836e-19	3.6607663e-20	-1.7845601e-19	0.015690705	0.0043803863	1.2810342e-06	-0.007998672	-0.0022294233	-4.832167e-06	0.023689378	0.0066098096	6.1132014e-06
4.4000926073148267e-10	0.92317516	0.2556544	0.00022370905	-1.4184834e-19	3.660778e-20	-1.7845613e-19	0.01569718	0.0043569016	1.276494e-06	-0.008001982	-0.0022174662	-4.817499e-06	0.023699163	0.006574367	6.0941093e-06
4.5000706311859314e-10	0.92355424	0.25428012	0.00022301493	-1.4184842e-19	3.66079e-20	-1.7845632e-19	0.015703596	0.0043334896	1.2734672e-06	-0.008005265	-0.0022055476	-4.8020156e-06	0.02370886	0.006539037	6.075483e-06
4.600073615506852e-10	0.9239301	0.25290936	0.00022224836	-1.4184851e-19	3.660802e-20	-1.7845653e-19	0.015709957	0.004310138	1.268927e-06	-0.008008517	-0.0021936593	-4.7860667e-06	0.023718474	0.006503797	6.0552265e-06
4.700049172327783e-10	0.9243027	0.25154296	0.0002215482	-1.418485e-19	3.6608135e-20	-1.7845667e-19	0.015716262	0.0042868606	1.2653181e-06	-0.008011742	-0.0021818087	-4.771049e-06	0.023728006	0.006468669	6.0361344e-06
4.800009897517399e-10	0.924672	0.2501806	0.00022082993	-1.4184854e-19	3.660826e-20	-1.784568e-19	0.015722515	0.0042636525	1.2612436e-06	-0.008014939	-0.0021699935	-4.754984e-06	0.023737453	0.006433646	6.0168095e-06
4.900088252259802e-10	0.9250384	0.24882063	0.00022008148	-1.4184863e-19	3.6608377e-20	-1.78457e-19	0.015728718	0.0042404844	1.2570526e-06	-0.00801811	-0.0021581985	-4.739384e-06	0.023746828	0.0063986834	5.9960876e-06
5e-10	0.92540115	0.24746695	0.0002193451	-1.4184869e-19	3.6608494e-20	-1.7845719e-19	0.015734855	0.0042174226	1.2528617e-06	-0.008021249	-0.0021464585	-4.7235517e-06	0.023756105	0.006363881	5.976297e-06
